<?xml version="1.0" encoding="UTF-8"?>

<!-- generated on 2024-05-05 17:19:44 by Eclipse SUMO sumo Version v1_19_0+1518-8614ccb2d38
<configuration xmlns:xsi="http://www.w3.org/2001/XMLSchema-instance" xsi:noNamespaceSchemaLocation="http://sumo.dlr.de/xsd/sumoConfiguration.xsd">

    <input>
        <net-file value="../tools/osm.net.xml"/>
        <route-files value="../tools/test.ru.xml"/>
    </input>

    <output>
        <netstate-dump value="../tools/dataOutput.xml"/>
        <emission-output value="../tools/emissionOut.xml"/>
    </output>

    <time>
        <begin value="0"/>
        <end value="20000"/>
    </time>

</configuration>
-->

<emission-export xmlns:xsi="http://www.w3.org/2001/XMLSchema-instance" xsi:noNamespaceSchemaLocation="http://sumo.dlr.de/xsd/emission_file.xsd">
    <timestep time="0.00">
        <vehicle id="0" eclass="HBEFA3/PC_G_EU4" CO2="2624.72" CO="164.78" HC="0.81" NOx="1.20" PMx="0.07" fuel="837.22" electricity="0.00" noise="55.94" route="!0" type="DEFAULT_VEHTYPE" waiting="0.00" lane="195397561#5_0" pos="5.10" speed="0.00" angle="356.56" x="2569.42" y="1692.44"/>
    </timestep>
    <timestep time="1.00">
        <vehicle id="0" eclass="HBEFA3/PC_G_EU4" CO2="2955.05" CO="148.04" HC="0.74" NOx="1.32" PMx="0.07" fuel="942.57" electricity="0.00" noise="62.52" route="!0" type="DEFAULT_VEHTYPE" waiting="0.00" lane="195397561#5_0" pos="6.48" speed="1.38" angle="356.56" x="2569.34" y="1693.81"/>
        <vehicle id="1" eclass="HBEFA3/PC_G_EU4" CO2="2624.72" CO="164.78" HC="0.81" NOx="1.20" PMx="0.07" fuel="837.22" electricity="0.00" noise="55.94" route="!1" type="DEFAULT_VEHTYPE" waiting="0.00" lane="-4588219#1_0" pos="5.10" speed="0.00" angle="265.12" x="2452.87" y="830.62"/>
    </timestep>
    <timestep time="2.00">
        <vehicle id="0" eclass="HBEFA3/PC_G_EU4" CO2="3267.70" CO="133.26" HC="0.68" NOx="1.43" PMx="0.07" fuel="1042.28" electricity="0.00" noise="62.85" route="!0" type="DEFAULT_VEHTYPE" waiting="0.00" lane="195397561#5_0" pos="9.18" speed="2.70" angle="356.53" x="2569.18" y="1696.51"/>
        <vehicle id="1" eclass="HBEFA3/PC_G_EU4" CO2="3089.80" CO="147.47" HC="0.74" NOx="1.38" PMx="0.07" fuel="985.55" electricity="0.00" noise="63.49" route="!1" type="DEFAULT_VEHTYPE" waiting="0.00" lane="-4588219#1_0" pos="6.68" speed="1.58" angle="265.12" x="2451.29" y="830.48"/>
        <vehicle id="2" eclass="HBEFA3/PC_G_EU4" CO2="2624.72" CO="164.78" HC="0.81" NOx="1.20" PMx="0.07" fuel="837.22" electricity="0.00" noise="55.94" route="!2" type="DEFAULT_VEHTYPE" waiting="0.00" lane="335462916_0" pos="5.10" speed="0.00" angle="163.52" x="2025.69" y="931.21"/>
    </timestep>
    <timestep time="3.00">
        <vehicle id="0" eclass="HBEFA3/PC_G_EU4" CO2="3775.14" CO="122.40" HC="0.65" NOx="1.63" PMx="0.08" fuel="1204.12" electricity="0.00" noise="63.95" route="!0" type="DEFAULT_VEHTYPE" waiting="0.00" lane="195397561#5_0" pos="13.32" speed="4.14" angle="356.27" x="2568.91" y="1700.65"/>
        <vehicle id="1" eclass="HBEFA3/PC_G_EU4" CO2="4684.96" CO="143.81" HC="0.77" NOx="2.07" PMx="0.10" fuel="1494.31" electricity="0.00" noise="67.96" route="!1" type="DEFAULT_VEHTYPE" waiting="0.00" lane="-4588219#1_0" pos="10.64" speed="3.96" angle="265.12" x="2447.35" y="830.15"/>
        <vehicle id="2" eclass="HBEFA3/PC_G_EU4" CO2="2933.80" CO="148.18" HC="0.74" NOx="1.31" PMx="0.07" fuel="935.80" electricity="0.00" noise="62.35" route="!2" type="DEFAULT_VEHTYPE" waiting="0.00" lane="335462916_0" pos="6.44" speed="1.34" angle="163.52" x="2026.07" y="929.92"/>
        <vehicle id="3" eclass="HBEFA3/PC_G_EU4" CO2="2624.72" CO="164.78" HC="0.81" NOx="1.20" PMx="0.07" fuel="837.22" electricity="0.00" noise="55.94" route="!3" type="DEFAULT_VEHTYPE" waiting="0.00" lane="4773464#0_1" pos="5.10" speed="0.00" angle="51.84" x="3403.13" y="552.11"/>
    </timestep>
    <timestep time="4.00">
        <vehicle id="0" eclass="HBEFA3/PC_G_EU4" CO2="6545.04" CO="145.96" HC="0.82" NOx="2.87" PMx="0.14" fuel="2087.57" electricity="0.00" noise="69.87" route="!0" type="DEFAULT_VEHTYPE" waiting="0.00" lane="195397561#5_0" pos="20.01" speed="6.69" angle="356.25" x="2568.47" y="1707.32"/>
        <vehicle id="1" eclass="HBEFA3/PC_G_EU4" CO2="4485.23" CO="117.62" HC="0.64" NOx="1.93" PMx="0.09" fuel="1430.60" electricity="0.00" noise="65.35" route="!1" type="DEFAULT_VEHTYPE" waiting="0.00" lane="-4588219#1_0" pos="16.20" speed="5.57" angle="265.12" x="2441.80" y="829.67"/>
        <vehicle id="2" eclass="HBEFA3/PC_G_EU4" CO2="4099.28" CO="139.86" HC="0.73" NOx="1.81" PMx="0.09" fuel="1307.51" electricity="0.00" noise="66.34" route="!2" type="DEFAULT_VEHTYPE" waiting="0.00" lane="335462916_0" pos="9.84" speed="3.40" angle="163.52" x="2027.03" y="926.66"/>
        <vehicle id="3" eclass="HBEFA3/PC_G_EU4" CO2="2955.53" CO="148.03" HC="0.74" NOx="1.32" PMx="0.07" fuel="942.73" electricity="0.00" noise="62.53" route="!3" type="DEFAULT_VEHTYPE" waiting="0.00" lane="4773464#0_2" pos="6.48" speed="1.38" angle="51.84" x="3402.20" y="555.45"/>
        <vehicle id="4" eclass="HBEFA3/PC_G_EU4" CO2="2624.72" CO="164.78" HC="0.81" NOx="1.20" PMx="0.07" fuel="837.22" electricity="0.00" noise="55.94" route="!4" type="DEFAULT_VEHTYPE" waiting="0.00" lane="111833185#0_0" pos="5.10" speed="0.00" angle="85.57" x="2346.96" y="1284.86"/>
    </timestep>
    <timestep time="5.00">
        <vehicle id="0" eclass="HBEFA3/PC_G_EU4" CO2="6529.86" CO="123.48" HC="0.72" NOx="2.81" PMx="0.13" fuel="2082.72" electricity="0.00" noise="68.32" route="!0" type="DEFAULT_VEHTYPE" waiting="0.00" lane="195397561#5_0" pos="28.67" speed="8.66" angle="353.93" x="2567.68" y="1715.94"/>
        <vehicle id="1" eclass="HBEFA3/PC_G_EU4" CO2="5785.61" CO="121.18" HC="0.69" NOx="2.49" PMx="0.12" fuel="1845.35" electricity="0.00" noise="67.45" route="!1" type="DEFAULT_VEHTYPE" waiting="0.00" lane="-4588219#1_0" pos="23.67" speed="7.47" angle="265.12" x="2434.37" y="829.04"/>
        <vehicle id="2" eclass="HBEFA3/PC_G_EU4" CO2="4251.01" CO="120.38" HC="0.65" NOx="1.84" PMx="0.08" fuel="1355.90" electricity="0.00" noise="65.01" route="!2" type="DEFAULT_VEHTYPE" waiting="0.00" lane="335462916_0" pos="14.84" speed="5.00" angle="163.52" x="2028.45" y="921.87"/>
        <vehicle id="3" eclass="HBEFA3/PC_G_EU4" CO2="4490.55" CO="143.53" HC="0.76" NOx="1.98" PMx="0.10" fuel="1432.30" electricity="0.00" noise="67.61" route="!3" type="DEFAULT_VEHTYPE" waiting="0.00" lane="4773464#0_3" pos="10.18" speed="3.70" angle="51.89" x="3403.06" y="560.19"/>
        <vehicle id="4" eclass="HBEFA3/PC_G_EU4" CO2="3876.66" CO="150.31" HC="0.78" NOx="1.73" PMx="0.09" fuel="1236.51" electricity="0.00" noise="67.49" route="!4" type="DEFAULT_VEHTYPE" waiting="0.00" lane="111833185#0_0" pos="7.51" speed="2.41" angle="85.57" x="2349.37" y="1285.05"/>
        <vehicle id="5" eclass="HBEFA3/PC_G_EU4" CO2="2624.72" CO="164.78" HC="0.81" NOx="1.20" PMx="0.07" fuel="837.22" electricity="0.00" noise="55.94" route="!5" type="DEFAULT_VEHTYPE" waiting="0.00" lane="-292429056#2_0" pos="5.10" speed="0.00" angle="265.30" x="2480.71" y="931.77"/>
    </timestep>
    <timestep time="6.00">
        <vehicle id="0" eclass="HBEFA3/PC_G_EU4" CO2="0.00" CO="0.00" HC="0.00" NOx="0.00" PMx="0.00" fuel="0.00" electricity="0.00" noise="58.02" route="!0" type="DEFAULT_VEHTYPE" waiting="0.00" lane="195397561#5_0" pos="36.59" speed="7.92" angle="352.74" x="2566.74" y="1723.79"/>
        <vehicle id="1" eclass="HBEFA3/PC_G_EU4" CO2="2021.31" CO="44.11" HC="0.24" NOx="0.72" PMx="0.02" fuel="644.73" electricity="0.00" noise="59.80" route="!1" type="DEFAULT_VEHTYPE" waiting="0.00" lane="-4588219#1_0" pos="31.10" speed="7.43" angle="265.12" x="2426.97" y="828.41"/>
        <vehicle id="2" eclass="HBEFA3/PC_G_EU4" CO2="5429.21" CO="120.96" HC="0.68" NOx="2.34" PMx="0.11" fuel="1731.68" electricity="0.00" noise="67.01" route="!2" type="DEFAULT_VEHTYPE" waiting="0.00" lane=":988652034_1_1" pos="1.07" speed="6.86" angle="163.52" x="2030.38" y="915.35"/>
        <vehicle id="3" eclass="HBEFA3/PC_G_EU4" CO2="3955.51" CO="113.51" HC="0.61" NOx="1.69" PMx="0.08" fuel="1261.65" electricity="0.00" noise="64.01" route="!3" type="DEFAULT_VEHTYPE" waiting="0.00" lane="4773464#0_3" pos="15.23" speed="5.05" angle="51.84" x="3406.99" y="563.28"/>
        <vehicle id="4" eclass="HBEFA3/PC_G_EU4" CO2="3709.70" CO="124.96" HC="0.66" NOx="1.61" PMx="0.07" fuel="1183.25" electricity="0.00" noise="63.91" route="!4" type="DEFAULT_VEHTYPE" waiting="0.00" lane="111833185#0_0" pos="11.39" speed="3.87" angle="85.57" x="2353.23" y="1285.35"/>
        <vehicle id="5" eclass="HBEFA3/PC_G_EU4" CO2="2969.16" CO="147.95" HC="0.74" NOx="1.33" PMx="0.07" fuel="947.07" electricity="0.00" noise="62.63" route="!5" type="DEFAULT_VEHTYPE" waiting="0.00" lane="-292429056#2_0" pos="6.50" speed="1.40" angle="265.30" x="2479.31" y="931.66"/>
        <vehicle id="6" eclass="HBEFA3/PC_G_EU4" CO2="2624.72" CO="164.78" HC="0.81" NOx="1.20" PMx="0.07" fuel="837.22" electricity="0.00" noise="55.94" route="!6" type="DEFAULT_VEHTYPE" waiting="0.00" lane="-1110751835#3_0" pos="3.71" speed="0.00" angle="341.27" x="2211.79" y="597.74"/>
    </timestep>
    <timestep time="7.00">
        <vehicle id="0" eclass="HBEFA3/PC_G_EU4" CO2="0.00" CO="0.00" HC="0.00" NOx="0.00" PMx="0.00" fuel="0.00" electricity="0.00" noise="47.49" route="!0" type="DEFAULT_VEHTYPE" waiting="0.00" lane="195397561#5_0" pos="40.84" speed="4.26" angle="352.27" x="2566.17" y="1728.01"/>
        <vehicle id="1" eclass="HBEFA3/PC_G_EU4" CO2="1967.43" CO="43.77" HC="0.24" NOx="0.70" PMx="0.02" fuel="627.55" electricity="0.00" noise="59.66" route="!1" type="DEFAULT_VEHTYPE" waiting="0.00" lane="-4588219#1_0" pos="38.46" speed="7.36" angle="265.12" x="2419.63" y="827.78"/>
        <vehicle id="2" eclass="HBEFA3/PC_G_EU4" CO2="7428.52" CO="137.38" HC="0.80" NOx="3.23" PMx="0.15" fuel="2369.34" electricity="0.00" noise="69.71" route="!2" type="DEFAULT_VEHTYPE" waiting="0.00" lane="85255870#0_1" pos="1.78" speed="9.10" angle="163.52" x="2032.86" y="906.95"/>
        <vehicle id="3" eclass="HBEFA3/PC_G_EU4" CO2="4687.43" CO="109.26" HC="0.61" NOx="2.00" PMx="0.09" fuel="1495.09" electricity="0.00" noise="65.37" route="!3" type="DEFAULT_VEHTYPE" waiting="0.00" lane="4773464#0_3" pos="21.79" speed="6.56" angle="49.53" x="3411.95" y="567.43"/>
        <vehicle id="4" eclass="HBEFA3/PC_G_EU4" CO2="6110.54" CO="141.76" HC="0.79" NOx="2.68" PMx="0.13" fuel="1948.99" electricity="0.00" noise="69.20" route="!4" type="DEFAULT_VEHTYPE" waiting="0.00" lane="111833185#0_0" pos="17.69" speed="6.30" angle="85.57" x="2359.51" y="1285.84"/>
        <vehicle id="5" eclass="HBEFA3/PC_G_EU4" CO2="4106.72" CO="139.36" HC="0.73" NOx="1.81" PMx="0.09" fuel="1309.88" electricity="0.00" noise="66.29" route="!5" type="DEFAULT_VEHTYPE" waiting="0.00" lane="-292429056#2_0" pos="9.94" speed="3.44" angle="265.30" x="2475.88" y="931.37"/>
        <vehicle id="6" eclass="HBEFA3/PC_G_EU4" CO2="3815.82" CO="149.89" HC="0.77" NOx="1.70" PMx="0.08" fuel="1217.11" electricity="0.00" noise="67.24" route="!6" type="DEFAULT_VEHTYPE" waiting="0.00" lane=":4605644865_0_0" pos="2.36" speed="2.36" angle="341.41" x="2211.04" y="599.98"/>
        <vehicle id="7" eclass="HBEFA3/PC_G_EU4" CO2="2624.72" CO="164.78" HC="0.81" NOx="1.20" PMx="0.07" fuel="837.22" electricity="0.00" noise="55.94" route="!7" type="DEFAULT_VEHTYPE" waiting="0.00" lane="22972219#0_0" pos="5.10" speed="0.00" angle="321.14" x="2979.97" y="1527.73"/>
    </timestep>
    <timestep time="8.00">
        <vehicle id="0" eclass="HBEFA3/PC_G_EU4" CO2="5497.48" CO="129.02" HC="0.72" NOx="2.39" PMx="0.11" fuel="1753.45" electricity="0.00" noise="67.58" route="!0" type="DEFAULT_VEHTYPE" waiting="0.00" lane=":cluster_26701262_9962315453_4_0" pos="4.25" speed="6.31" angle="348.49" x="2564.99" y="1734.21"/>
        <vehicle id="1" eclass="HBEFA3/PC_G_EU4" CO2="0.00" CO="0.00" HC="0.00" NOx="0.00" PMx="0.00" fuel="0.00" electricity="0.00" noise="57.49" route="!1" type="DEFAULT_VEHTYPE" waiting="0.00" lane="-4588219#1_0" pos="45.23" speed="6.77" angle="265.12" x="2412.88" y="827.21"/>
        <vehicle id="2" eclass="HBEFA3/PC_G_EU4" CO2="6695.80" CO="107.00" HC="0.65" NOx="2.84" PMx="0.13" fuel="2135.64" electricity="0.00" noise="67.98" route="!2" type="DEFAULT_VEHTYPE" waiting="0.00" lane="85255870#0_1" pos="12.51" speed="10.73" angle="163.52" x="2035.91" y="896.66"/>
        <vehicle id="3" eclass="HBEFA3/PC_G_EU4" CO2="5136.79" CO="101.62" HC="0.58" NOx="2.17" PMx="0.10" fuel="1638.41" electricity="0.00" noise="65.89" route="!3" type="DEFAULT_VEHTYPE" waiting="0.00" lane="4773464#0_3" pos="29.81" speed="8.02" angle="45.87" x="3417.64" y="572.95"/>
        <vehicle id="4" eclass="HBEFA3/PC_G_EU4" CO2="5904.69" CO="116.47" HC="0.67" NOx="2.53" PMx="0.12" fuel="1883.32" electricity="0.00" noise="67.37" route="!4" type="DEFAULT_VEHTYPE" waiting="0.00" lane="111833185#0_0" pos="25.79" speed="8.11" angle="85.57" x="2367.60" y="1286.46"/>
        <vehicle id="5" eclass="HBEFA3/PC_G_EU4" CO2="4343.84" CO="121.08" HC="0.65" NOx="1.88" PMx="0.09" fuel="1385.50" electricity="0.00" noise="65.25" route="!5" type="DEFAULT_VEHTYPE" waiting="0.00" lane="-292429056#2_0" pos="15.03" speed="5.09" angle="265.30" x="2470.81" y="930.96"/>
        <vehicle id="6" eclass="HBEFA3/PC_G_EU4" CO2="4036.94" CO="128.86" HC="0.68" NOx="1.76" PMx="0.08" fuel="1287.63" electricity="0.00" noise="65.08" route="!6" type="DEFAULT_VEHTYPE" waiting="0.00" lane="-1110751835#2_0" pos="1.12" speed="4.07" angle="341.60" x="2209.76" y="603.84"/>
        <vehicle id="7" eclass="HBEFA3/PC_G_EU4" CO2="3223.28" CO="147.38" HC="0.75" NOx="1.44" PMx="0.07" fuel="1028.12" electricity="0.00" noise="64.33" route="!7" type="DEFAULT_VEHTYPE" waiting="0.00" lane="22972219#0_0" pos="6.85" speed="1.75" angle="321.14" x="2978.87" y="1529.10"/>
        <vehicle id="8" eclass="HBEFA3/PC_G_EU4" CO2="2624.72" CO="164.78" HC="0.81" NOx="1.20" PMx="0.07" fuel="837.22" electricity="0.00" noise="55.94" route="!8" type="DEFAULT_VEHTYPE" waiting="0.00" lane="-292429056#2_0" pos="5.10" speed="0.00" angle="265.30" x="2480.71" y="931.77"/>
    </timestep>
    <timestep time="9.00">
        <vehicle id="0" eclass="HBEFA3/PC_G_EU4" CO2="5661.41" CO="112.42" HC="0.65" NOx="2.42" PMx="0.11" fuel="1805.73" electricity="0.00" noise="66.93" route="!0" type="DEFAULT_VEHTYPE" waiting="0.00" lane=":cluster_26701262_9962315453_4_0" pos="12.27" speed="8.02" angle="330.92" x="2561.79" y="1741.43"/>
        <vehicle id="1" eclass="HBEFA3/PC_G_EU4" CO2="2374.86" CO="57.26" HC="0.31" NOx="0.90" PMx="0.03" fuel="757.50" electricity="0.00" noise="60.14" route="!1" type="DEFAULT_VEHTYPE" waiting="0.00" lane="-4588219#1_0" pos="52.16" speed="6.93" angle="265.12" x="2405.98" y="826.62"/>
        <vehicle id="2" eclass="HBEFA3/PC_G_EU4" CO2="7506.86" CO="110.55" HC="0.68" NOx="3.18" PMx="0.15" fuel="2394.32" electricity="0.00" noise="68.87" route="!2" type="DEFAULT_VEHTYPE" waiting="0.00" lane="85255870#0_1" pos="24.89" speed="12.37" angle="163.52" x="2039.42" y="884.80"/>
        <vehicle id="3" eclass="HBEFA3/PC_G_EU4" CO2="8840.06" CO="153.41" HC="0.91" NOx="3.86" PMx="0.19" fuel="2819.55" electricity="0.00" noise="71.25" route="!3" type="DEFAULT_VEHTYPE" waiting="0.00" lane="4773464#0_3" pos="40.29" speed="10.48" angle="45.86" x="3425.07" y="580.16"/>
        <vehicle id="4" eclass="HBEFA3/PC_G_EU4" CO2="0.00" CO="0.00" HC="0.00" NOx="0.00" PMx="0.00" fuel="0.00" electricity="0.00" noise="59.09" route="!4" type="DEFAULT_VEHTYPE" waiting="0.00" lane="111833185#0_0" pos="33.57" speed="7.77" angle="85.57" x="2375.35" y="1287.06"/>
        <vehicle id="5" eclass="HBEFA3/PC_G_EU4" CO2="4448.80" CO="105.46" HC="0.58" NOx="1.89" PMx="0.08" fuel="1418.98" electricity="0.00" noise="64.81" route="!5" type="DEFAULT_VEHTYPE" waiting="0.00" lane="-292429056#2_0" pos="21.50" speed="6.47" angle="265.30" x="2464.36" y="930.43"/>
        <vehicle id="6" eclass="HBEFA3/PC_G_EU4" CO2="0.00" CO="0.00" HC="0.00" NOx="0.00" PMx="0.00" fuel="0.00" electricity="0.00" noise="54.48" route="!6" type="DEFAULT_VEHTYPE" waiting="0.00" lane=":25661976_5_0" pos="3.36" speed="3.36" angle="299.71" x="2207.07" y="604.11"/>
        <vehicle id="7" eclass="HBEFA3/PC_G_EU4" CO2="4526.30" CO="140.34" HC="0.75" NOx="1.99" PMx="0.10" fuel="1443.71" electricity="0.00" noise="67.26" route="!7" type="DEFAULT_VEHTYPE" waiting="0.00" lane="22972219#0_0" pos="10.82" speed="3.97" angle="321.14" x="2976.38" y="1532.19"/>
        <vehicle id="8" eclass="HBEFA3/PC_G_EU4" CO2="3838.32" CO="150.04" HC="0.77" NOx="1.71" PMx="0.09" fuel="1224.28" electricity="0.00" noise="67.33" route="!8" type="DEFAULT_VEHTYPE" waiting="0.00" lane="-292429056#2_0" pos="7.48" speed="2.38" angle="265.30" x="2478.33" y="931.58"/>
        <vehicle id="9" eclass="HBEFA3/PC_G_EU4" CO2="2624.72" CO="164.78" HC="0.81" NOx="1.20" PMx="0.07" fuel="837.22" electricity="0.00" noise="55.94" route="!9" type="DEFAULT_VEHTYPE" waiting="0.00" lane="4570580#5_0" pos="5.10" speed="0.00" angle="259.80" x="2081.70" y="1752.23"/>
    </timestep>
    <timestep time="10.00">
        <vehicle id="0" eclass="HBEFA3/PC_G_EU4" CO2="2478.84" CO="44.91" HC="0.26" NOx="0.91" PMx="0.03" fuel="790.66" electricity="0.00" noise="61.10" route="!0" type="DEFAULT_VEHTYPE" waiting="0.00" lane="1151064396_0" pos="1.32" speed="8.20" angle="276.06" x="2554.42" y="1744.04"/>
        <vehicle id="1" eclass="HBEFA3/PC_G_EU4" CO2="0.00" CO="0.00" HC="0.00" NOx="0.00" PMx="0.00" fuel="0.00" electricity="0.00" noise="57.96" route="!1" type="DEFAULT_VEHTYPE" waiting="0.00" lane="-4588219#1_0" pos="58.70" speed="6.54" angle="265.12" x="2399.46" y="826.06"/>
        <vehicle id="10" eclass="HBEFA3/PC_G_EU4" CO2="2624.72" CO="164.78" HC="0.81" NOx="1.20" PMx="0.07" fuel="837.22" electricity="0.00" noise="55.94" route="!10" type="DEFAULT_VEHTYPE" waiting="0.00" lane="4570580#0_0" pos="5.10" speed="0.00" angle="255.47" x="2219.04" y="1776.93"/>
        <vehicle id="2" eclass="HBEFA3/PC_G_EU4" CO2="4991.60" CO="53.23" HC="0.36" NOx="1.97" PMx="0.08" fuel="1592.09" electricity="0.00" noise="66.29" route="!2" type="DEFAULT_VEHTYPE" waiting="0.00" lane="85255870#0_1" pos="38.05" speed="13.16" angle="163.52" x="2043.15" y="872.17"/>
        <vehicle id="3" eclass="HBEFA3/PC_G_EU4" CO2="0.00" CO="0.00" HC="0.00" NOx="0.00" PMx="0.00" fuel="0.00" electricity="0.00" noise="50.65" route="!3" type="DEFAULT_VEHTYPE" waiting="0.00" lane=":cluster_1349668349_1349673594_9_0" pos="4.08" speed="5.98" angle="34.64" x="3428.59" y="584.92"/>
        <vehicle id="4" eclass="HBEFA3/PC_G_EU4" CO2="3792.90" CO="68.36" HC="0.40" NOx="1.53" PMx="0.06" fuel="1209.77" electricity="0.00" noise="63.43" route="!4" type="DEFAULT_VEHTYPE" waiting="0.00" lane="111833185#0_0" pos="42.11" speed="8.54" angle="85.57" x="2383.86" y="1287.72"/>
        <vehicle id="5" eclass="HBEFA3/PC_G_EU4" CO2="0.00" CO="0.00" HC="0.00" NOx="0.00" PMx="0.00" fuel="0.00" electricity="0.00" noise="57.40" route="!5" type="DEFAULT_VEHTYPE" waiting="0.00" lane="-292429056#2_0" pos="27.53" speed="6.03" angle="265.30" x="2458.35" y="929.93"/>
        <vehicle id="6" eclass="HBEFA3/PC_G_EU4" CO2="0.00" CO="0.00" HC="0.00" NOx="0.00" PMx="0.00" fuel="0.00" electricity="0.00" noise="53.49" route="!6" type="DEFAULT_VEHTYPE" waiting="0.00" lane=":4605644865_1_0" pos="0.11" speed="2.54" angle="215.80" x="2207.10" y="601.69"/>
        <vehicle id="7" eclass="HBEFA3/PC_G_EU4" CO2="4617.38" CO="119.27" HC="0.65" NOx="1.99" PMx="0.09" fuel="1472.75" electricity="0.00" noise="65.68" route="!7" type="DEFAULT_VEHTYPE" waiting="0.00" lane="22972219#0_0" pos="16.47" speed="5.65" angle="321.14" x="2972.83" y="1536.59"/>
        <vehicle id="8" eclass="HBEFA3/PC_G_EU4" CO2="3632.37" CO="124.59" HC="0.65" NOx="1.58" PMx="0.07" fuel="1158.59" electricity="0.00" noise="63.65" route="!8" type="DEFAULT_VEHTYPE" waiting="0.00" lane="-292429056#2_0" pos="11.27" speed="3.79" angle="265.30" x="2474.56" y="931.27"/>
        <vehicle id="9" eclass="HBEFA3/PC_G_EU4" CO2="3934.06" CO="150.73" HC="0.78" NOx="1.75" PMx="0.09" fuel="1254.82" electricity="0.00" noise="67.73" route="!9" type="DEFAULT_VEHTYPE" waiting="0.00" lane="4570580#5_0" pos="7.56" speed="2.46" angle="259.80" x="2079.28" y="1751.79"/>
    </timestep>
    <timestep time="11.00">
        <vehicle id="0" eclass="HBEFA3/PC_G_EU4" CO2="2061.56" CO="36.45" HC="0.21" NOx="0.72" PMx="0.02" fuel="657.57" electricity="0.00" noise="60.43" route="!0" type="DEFAULT_VEHTYPE" waiting="0.00" lane="1151064396_0" pos="9.51" speed="8.19" angle="262.83" x="2546.29" y="1743.09"/>
        <vehicle id="1" eclass="HBEFA3/PC_G_EU4" CO2="3912.93" CO="82.53" HC="0.47" NOx="1.61" PMx="0.07" fuel="1248.06" electricity="0.00" noise="63.48" route="!1" type="DEFAULT_VEHTYPE" waiting="0.00" lane="-4588219#1_0" pos="66.17" speed="7.47" angle="265.12" x="2392.02" y="825.43"/>
        <vehicle id="10" eclass="HBEFA3/PC_G_EU4" CO2="4017.49" CO="151.38" HC="0.78" NOx="1.79" PMx="0.09" fuel="1281.43" electricity="0.00" noise="68.06" route="!10" type="DEFAULT_VEHTYPE" waiting="0.00" lane="4570580#0_0" pos="7.63" speed="2.53" angle="259.85" x="2216.55" y="1776.49"/>
        <vehicle id="11" eclass="HBEFA3/PC_G_EU4" CO2="2624.72" CO="164.78" HC="0.81" NOx="1.20" PMx="0.07" fuel="837.22" electricity="0.00" noise="55.94" route="!11" type="DEFAULT_VEHTYPE" waiting="0.00" lane="-492340367#1_0" pos="5.10" speed="0.00" angle="355.19" x="2725.00" y="1644.86"/>
        <vehicle id="2" eclass="HBEFA3/PC_G_EU4" CO2="0.00" CO="0.00" HC="0.00" NOx="0.00" PMx="0.00" fuel="0.00" electricity="0.00" noise="57.42" route="!2" type="DEFAULT_VEHTYPE" waiting="0.00" lane=":cluster_26708008_3347616381_3803662855_3803663067_#3more_23_0" pos="6.49" speed="10.07" angle="154.21" x="2047.00" y="862.89"/>
        <vehicle id="3" eclass="HBEFA3/PC_G_EU4" CO2="4601.04" CO="98.76" HC="0.56" NOx="1.94" PMx="0.09" fuel="1467.53" electricity="0.00" noise="64.94" route="!3" type="DEFAULT_VEHTYPE" waiting="0.00" lane=":cluster_1349668349_1349673594_13_0" pos="5.57" speed="7.29" angle="343.23" x="3427.33" y="591.80"/>
        <vehicle id="4" eclass="HBEFA3/PC_G_EU4" CO2="0.00" CO="0.00" HC="0.00" NOx="0.00" PMx="0.00" fuel="0.00" electricity="0.00" noise="58.25" route="!4" type="DEFAULT_VEHTYPE" waiting="0.00" lane="111833185#0_0" pos="50.00" speed="7.89" angle="85.57" x="2391.73" y="1288.33"/>
        <vehicle id="5" eclass="HBEFA3/PC_G_EU4" CO2="3525.98" CO="82.08" HC="0.45" NOx="1.44" PMx="0.06" fuel="1124.64" electricity="0.00" noise="62.58" route="!5" type="DEFAULT_VEHTYPE" waiting="0.00" lane="-292429056#2_0" pos="34.36" speed="6.83" angle="265.30" x="2451.54" y="929.37"/>
        <vehicle id="6" eclass="HBEFA3/PC_G_EU4" CO2="4773.23" CO="135.69" HC="0.73" NOx="2.09" PMx="0.10" fuel="1522.46" electricity="0.00" noise="67.16" route="!6" type="DEFAULT_VEHTYPE" waiting="0.00" lane=":4605644865_1_0" pos="4.77" speed="4.66" angle="161.70" x="2208.57" y="597.26"/>
        <vehicle id="7" eclass="HBEFA3/PC_G_EU4" CO2="4221.20" CO="96.32" HC="0.54" NOx="1.77" PMx="0.08" fuel="1346.38" electricity="0.00" noise="64.17" route="!7" type="DEFAULT_VEHTYPE" waiting="0.00" lane="22972219#0_0" pos="23.31" speed="6.84" angle="321.14" x="2968.54" y="1541.91"/>
        <vehicle id="8" eclass="HBEFA3/PC_G_EU4" CO2="6289.73" CO="145.23" HC="0.81" NOx="2.76" PMx="0.13" fuel="2006.14" electricity="0.00" noise="69.66" route="!8" type="DEFAULT_VEHTYPE" waiting="0.00" lane="-292429056#2_0" pos="17.59" speed="6.32" angle="265.30" x="2468.26" y="930.75"/>
        <vehicle id="9" eclass="HBEFA3/PC_G_EU4" CO2="4104.30" CO="128.52" HC="0.68" NOx="1.79" PMx="0.08" fuel="1309.11" electricity="0.00" noise="65.22" route="!9" type="DEFAULT_VEHTYPE" waiting="0.00" lane="4570580#5_0" pos="11.75" speed="4.19" angle="259.80" x="2075.15" y="1751.05"/>
    </timestep>
    <timestep time="12.00">
        <vehicle id="0" eclass="HBEFA3/PC_G_EU4" CO2="3282.85" CO="56.03" HC="0.33" NOx="1.28" PMx="0.05" fuel="1047.09" electricity="0.00" noise="62.64" route="!0" type="DEFAULT_VEHTYPE" waiting="0.00" lane="1151064396_0" pos="18.23" speed="8.71" angle="260.89" x="2537.67" y="1741.79"/>
        <vehicle id="1" eclass="HBEFA3/PC_G_EU4" CO2="0.00" CO="0.00" HC="0.00" NOx="0.00" PMx="0.00" fuel="0.00" electricity="0.00" noise="57.73" route="!1" type="DEFAULT_VEHTYPE" waiting="0.00" lane="-4588219#1_0" pos="73.10" speed="6.93" angle="265.12" x="2385.12" y="824.84"/>
        <vehicle id="10" eclass="HBEFA3/PC_G_EU4" CO2="4179.12" CO="128.64" HC="0.68" NOx="1.82" PMx="0.09" fuel="1332.97" electricity="0.00" noise="65.40" route="!10" type="DEFAULT_VEHTYPE" waiting="0.00" lane="4570580#0_0" pos="11.92" speed="4.29" angle="259.93" x="2212.32" y="1775.74"/>
        <vehicle id="11" eclass="HBEFA3/PC_G_EU4" CO2="3791.51" CO="149.72" HC="0.77" NOx="1.69" PMx="0.08" fuel="1209.35" electricity="0.00" noise="67.14" route="!11" type="DEFAULT_VEHTYPE" waiting="0.00" lane="-492340367#1_0" pos="7.44" speed="2.34" angle="355.19" x="2724.81" y="1647.19"/>
        <vehicle id="12" eclass="HBEFA3/PC_G_EU4" CO2="2624.72" CO="164.78" HC="0.81" NOx="1.20" PMx="0.07" fuel="837.22" electricity="0.00" noise="55.94" route="!12" type="DEFAULT_VEHTYPE" waiting="0.00" lane="753316506#1_0" pos="5.10" speed="0.00" angle="85.25" x="2290.82" y="714.23"/>
        <vehicle id="2" eclass="HBEFA3/PC_G_EU4" CO2="3444.28" CO="41.67" HC="0.27" NOx="1.31" PMx="0.05" fuel="1098.58" electricity="0.00" noise="63.64" route="!2" type="DEFAULT_VEHTYPE" waiting="0.00" lane=":cluster_26708008_3347616381_3803662855_3803663067_#3more_34_0" pos="9.81" speed="10.55" angle="103.93" x="2056.07" y="858.14"/>
        <vehicle id="3" eclass="HBEFA3/PC_G_EU4" CO2="5221.60" CO="96.31" HC="0.56" NOx="2.20" PMx="0.10" fuel="1665.45" electricity="0.00" noise="65.93" route="!3" type="DEFAULT_VEHTYPE" waiting="0.00" lane=":cluster_1349668349_1349673594_13_0" pos="14.25" speed="8.68" angle="314.24" x="3421.74" y="598.34"/>
        <vehicle id="4" eclass="HBEFA3/PC_G_EU4" CO2="0.00" CO="0.00" HC="0.00" NOx="0.00" PMx="0.00" fuel="0.00" electricity="0.00" noise="58.98" route="!4" type="DEFAULT_VEHTYPE" waiting="0.00" lane="111833185#0_0" pos="57.57" speed="7.57" angle="85.57" x="2399.28" y="1288.91"/>
        <vehicle id="5" eclass="HBEFA3/PC_G_EU4" CO2="0.00" CO="0.00" HC="0.00" NOx="0.00" PMx="0.00" fuel="0.00" electricity="0.00" noise="58.47" route="!5" type="DEFAULT_VEHTYPE" waiting="0.00" lane="-292429056#2_0" pos="40.95" speed="6.58" angle="265.30" x="2444.98" y="928.83"/>
        <vehicle id="6" eclass="HBEFA3/PC_G_EU4" CO2="4039.21" CO="104.14" HC="0.57" NOx="1.71" PMx="0.08" fuel="1288.34" electricity="0.00" noise="63.92" route="!6" type="DEFAULT_VEHTYPE" waiting="0.00" lane=":271747430_0_0" pos="1.61" speed="5.90" angle="150.91" x="2211.17" y="592.24"/>
        <vehicle id="7" eclass="HBEFA3/PC_G_EU4" CO2="0.00" CO="0.00" HC="0.00" NOx="0.00" PMx="0.00" fuel="0.00" electricity="0.00" noise="58.39" route="!7" type="DEFAULT_VEHTYPE" waiting="0.00" lane="22972219#0_0" pos="29.88" speed="6.57" angle="321.14" x="2964.42" y="1547.03"/>
        <vehicle id="8" eclass="HBEFA3/PC_G_EU4" CO2="4338.36" CO="91.32" HC="0.52" NOx="1.81" PMx="0.08" fuel="1383.75" electricity="0.00" noise="64.36" route="!8" type="DEFAULT_VEHTYPE" waiting="0.00" lane="-292429056#2_0" pos="25.06" speed="7.47" angle="265.30" x="2460.82" y="930.14"/>
        <vehicle id="9" eclass="HBEFA3/PC_G_EU4" CO2="4924.71" CO="121.34" HC="0.67" NOx="2.13" PMx="0.10" fuel="1570.77" electricity="0.00" noise="66.31" route="!9" type="DEFAULT_VEHTYPE" waiting="0.00" lane="4570580#5_0" pos="17.73" speed="5.98" angle="259.80" x="2069.27" y="1749.99"/>
    </timestep>
    <timestep time="13.00">
        <vehicle id="0" eclass="HBEFA3/PC_G_EU4" CO2="0.00" CO="0.00" HC="0.00" NOx="0.00" PMx="0.00" fuel="0.00" electricity="0.00" noise="56.81" route="!0" type="DEFAULT_VEHTYPE" waiting="0.00" lane="1151064396_0" pos="25.84" speed="7.61" angle="260.89" x="2530.16" y="1740.59"/>
        <vehicle id="1" eclass="HBEFA3/PC_G_EU4" CO2="3622.63" CO="74.11" HC="0.42" NOx="1.47" PMx="0.06" fuel="1155.47" electricity="0.00" noise="62.93" route="!1" type="DEFAULT_VEHTYPE" waiting="0.00" lane="-4588219#1_0" pos="80.79" speed="7.69" angle="265.35" x="2377.46" y="824.20"/>
        <vehicle id="10" eclass="HBEFA3/PC_G_EU4" CO2="4926.67" CO="120.37" HC="0.66" NOx="2.13" PMx="0.10" fuel="1571.40" electricity="0.00" noise="66.26" route="!10" type="DEFAULT_VEHTYPE" waiting="0.00" lane="4570580#0_0" pos="17.98" speed="6.06" angle="259.93" x="2206.36" y="1774.68"/>
        <vehicle id="11" eclass="HBEFA3/PC_G_EU4" CO2="3521.19" CO="124.05" HC="0.65" NOx="1.53" PMx="0.07" fuel="1123.13" electricity="0.00" noise="63.25" route="!11" type="DEFAULT_VEHTYPE" waiting="0.00" lane="-492340367#1_0" pos="11.11" speed="3.67" angle="355.19" x="2724.50" y="1650.85"/>
        <vehicle id="12" eclass="HBEFA3/PC_G_EU4" CO2="3556.28" CO="148.36" HC="0.76" NOx="1.59" PMx="0.08" fuel="1134.33" electricity="0.00" noise="66.08" route="!12" type="DEFAULT_VEHTYPE" waiting="0.00" lane="753316506#1_0" pos="7.22" speed="2.12" angle="85.25" x="2292.93" y="714.41"/>
        <vehicle id="13" eclass="HBEFA3/PC_G_EU4" CO2="2624.72" CO="164.78" HC="0.81" NOx="1.20" PMx="0.07" fuel="837.22" electricity="0.00" noise="55.94" route="!13" type="DEFAULT_VEHTYPE" waiting="0.00" lane="-1159149106#0_0" pos="5.10" speed="0.00" angle="353.37" x="3046.16" y="995.02"/>
        <vehicle id="2" eclass="HBEFA3/PC_G_EU4" CO2="0.00" CO="0.00" HC="0.00" NOx="0.00" PMx="0.00" fuel="0.00" electricity="0.00" noise="57.24" route="!2" type="DEFAULT_VEHTYPE" waiting="0.00" lane=":cluster_26708008_3347616381_3803662855_3803663067_#3more_34_0" pos="18.75" speed="8.93" angle="82.32" x="2064.91" y="858.85"/>